LAMMPS data file via write_data, version 23 Jun 2022, timestep = 500000

1152 atoms
7 atom types
1200 bonds
75 bond types
2240 angles
140 angle types
3520 dihedrals
220 dihedral types

0.3367577827513812 11.51724221724808 xlo xhi
-0.7855437618706899 16.54554376198405 ylo yhi
0.9489455138443149 57.35814250295593 zlo zhi
0.14795160632565382 -2.4614498711763937 6.0589766058528784 xy xz yz

Masses

1 32.06
2 12.01
3 12.01
4 12.01
5 1.008
6 1.008
7 12.01

Pair Coeffs # lj/cut/coul/long

1 0.2824 3.53241
2 0.0988 3.31521
3 0.0988 3.31521
4 0.1078 3.39771
5 0.0161 2.62548
6 0.0208 2.60018
7 0.0988 3.31521

Bond Coeffs

1 harmonic    2.13480000e+02    1.78470000e+00
2 harmonic    2.31660000e+02    1.75380000e+00
3 harmonic    3.54250000e+02    1.39860000e+00
4 harmonic    3.54250000e+02    1.39860000e+00
5 harmonic    3.54250000e+02    1.39860000e+00
6 harmonic    3.60690000e+02    1.08600000e+00
7 harmonic    3.54250000e+02    1.39860000e+00
8 harmonic    2.43910000e+02    1.51470000e+00
9 harmonic    3.54250000e+02    1.39860000e+00
10 harmonic    3.60690000e+02    1.08600000e+00
11 harmonic    3.54250000e+02    1.39860000e+00
12 harmonic    3.60690000e+02    1.08600000e+00
13 harmonic    2.88790000e+02    1.46100000e+00
14 harmonic    2.96500000e+02    1.45280000e+00
15 harmonic    3.86240000e+02    1.37300000e+00
16 harmonic    2.28890000e+02    1.53540000e+00
17 harmonic    3.45250000e+02    1.09620000e+00
18 harmonic    3.45250000e+02    1.09620000e+00
19 harmonic    2.28890000e+02    1.53540000e+00
20 harmonic    3.45250000e+02    1.09620000e+00
21 harmonic    3.45250000e+02    1.09620000e+00
22 harmonic    2.28890000e+02    1.53540000e+00
23 harmonic    3.45250000e+02    1.09620000e+00
24 harmonic    3.45250000e+02    1.09620000e+00
25 harmonic    2.28890000e+02    1.53540000e+00
26 harmonic    3.45250000e+02    1.09620000e+00
27 harmonic    3.45250000e+02    1.09620000e+00
28 harmonic    2.28890000e+02    1.53540000e+00
29 harmonic    3.45250000e+02    1.09620000e+00
30 harmonic    3.45250000e+02    1.09620000e+00
31 harmonic    2.28890000e+02    1.53540000e+00
32 harmonic    3.45250000e+02    1.09620000e+00
33 harmonic    3.45250000e+02    1.09620000e+00
34 harmonic    2.28890000e+02    1.53540000e+00
35 harmonic    3.45250000e+02    1.09620000e+00
36 harmonic    3.45250000e+02    1.09620000e+00
37 harmonic    3.45250000e+02    1.09620000e+00
38 harmonic    3.45250000e+02    1.09620000e+00
39 harmonic    3.45250000e+02    1.09620000e+00
40 harmonic    2.13480000e+02    1.78470000e+00
41 harmonic    2.26530000e+02    1.76220000e+00
42 harmonic    3.54250000e+02    1.39860000e+00
43 harmonic    3.54250000e+02    1.39860000e+00
44 harmonic    3.54250000e+02    1.39860000e+00
45 harmonic    3.60690000e+02    1.08600000e+00
46 harmonic    3.54250000e+02    1.39860000e+00
47 harmonic    2.43910000e+02    1.51470000e+00
48 harmonic    3.54250000e+02    1.39860000e+00
49 harmonic    3.60690000e+02    1.08600000e+00
50 harmonic    3.54250000e+02    1.39860000e+00
51 harmonic    3.60690000e+02    1.08600000e+00
52 harmonic    2.28890000e+02    1.53540000e+00
53 harmonic    3.45250000e+02    1.09620000e+00
54 harmonic    3.45250000e+02    1.09620000e+00
55 harmonic    2.28890000e+02    1.53540000e+00
56 harmonic    3.45250000e+02    1.09620000e+00
57 harmonic    3.45250000e+02    1.09620000e+00
58 harmonic    2.28890000e+02    1.53540000e+00
59 harmonic    3.45250000e+02    1.09620000e+00
60 harmonic    3.45250000e+02    1.09620000e+00
61 harmonic    2.28890000e+02    1.53540000e+00
62 harmonic    3.45250000e+02    1.09620000e+00
63 harmonic    3.45250000e+02    1.09620000e+00
64 harmonic    2.28890000e+02    1.53540000e+00
65 harmonic    3.45250000e+02    1.09620000e+00
66 harmonic    3.45250000e+02    1.09620000e+00
67 harmonic    2.28890000e+02    1.53540000e+00
68 harmonic    3.45250000e+02    1.09620000e+00
69 harmonic    3.45250000e+02    1.09620000e+00
70 harmonic    2.28890000e+02    1.53540000e+00
71 harmonic    3.45250000e+02    1.09620000e+00
72 harmonic    3.45250000e+02    1.09620000e+00
73 harmonic    3.45250000e+02    1.09620000e+00
74 harmonic    3.45250000e+02    1.09620000e+00
75 harmonic    3.45250000e+02    1.09620000e+00

Angle Coeffs

1 harmonic    6.30900000e+01    1.20060052e+02
2 harmonic    6.30900000e+01    1.20060052e+02
3 harmonic    6.30100000e+01    1.21480052e+02
4 harmonic    6.66200000e+01    1.11550048e+02
5 harmonic    1.01980000e+02    8.90400380e+01
6 harmonic    6.36700000e+01    1.20020052e+02
7 harmonic    4.49000000e+01    1.19880051e+02
8 harmonic    6.36700000e+01    1.20020052e+02
9 harmonic    6.20200000e+01    1.20830052e+02
10 harmonic    6.36700000e+01    1.20020052e+02
11 harmonic    6.36700000e+01    1.20020052e+02
12 harmonic    6.07400000e+01    1.20830052e+02
13 harmonic    4.49000000e+01    1.19880051e+02
14 harmonic    6.36700000e+01    1.20020052e+02
15 harmonic    4.49000000e+01    1.19880051e+02
16 harmonic    6.03300000e+01    1.12420048e+02
17 harmonic    4.36100000e+01    1.10630048e+02
18 harmonic    4.36100000e+01    1.10630048e+02
19 harmonic    6.07400000e+01    1.20830052e+02
20 harmonic    6.36700000e+01    1.20020052e+02
21 harmonic    4.49000000e+01    1.19880051e+02
22 harmonic    4.49000000e+01    1.19880051e+02
23 harmonic    6.20200000e+01    1.20830052e+02
24 harmonic    4.49000000e+01    1.19880051e+02
25 harmonic    6.16400000e+01    1.24290053e+02
26 harmonic    6.31300000e+01    1.19820052e+02
27 harmonic    6.21900000e+01    1.20910052e+02
28 harmonic    6.21900000e+01    1.20910052e+02
29 harmonic    6.58400000e+01    1.13350049e+02
30 harmonic    5.98700000e+01    1.12630048e+02
31 harmonic    4.32700000e+01    1.09680047e+02
32 harmonic    4.32700000e+01    1.09680047e+02
33 harmonic    4.32700000e+01    1.09680047e+02
34 harmonic    4.32700000e+01    1.09680047e+02
35 harmonic    5.98700000e+01    1.12630048e+02
36 harmonic    4.32700000e+01    1.09680047e+02
37 harmonic    4.32700000e+01    1.09680047e+02
38 harmonic    4.32700000e+01    1.09680047e+02
39 harmonic    4.32700000e+01    1.09680047e+02
40 harmonic    5.98700000e+01    1.12630048e+02
41 harmonic    4.32700000e+01    1.09680047e+02
42 harmonic    4.32700000e+01    1.09680047e+02
43 harmonic    4.32700000e+01    1.09680047e+02
44 harmonic    4.32700000e+01    1.09680047e+02
45 harmonic    5.98700000e+01    1.12630048e+02
46 harmonic    4.32700000e+01    1.09680047e+02
47 harmonic    4.32700000e+01    1.09680047e+02
48 harmonic    4.32700000e+01    1.09680047e+02
49 harmonic    4.32700000e+01    1.09680047e+02
50 harmonic    5.98700000e+01    1.12630048e+02
51 harmonic    4.32700000e+01    1.09680047e+02
52 harmonic    4.32700000e+01    1.09680047e+02
53 harmonic    4.32700000e+01    1.09680047e+02
54 harmonic    4.32700000e+01    1.09680047e+02
55 harmonic    5.98700000e+01    1.12630048e+02
56 harmonic    4.32700000e+01    1.09680047e+02
57 harmonic    4.32700000e+01    1.09680047e+02
58 harmonic    4.32700000e+01    1.09680047e+02
59 harmonic    4.32700000e+01    1.09680047e+02
60 harmonic    4.32700000e+01    1.09680047e+02
61 harmonic    4.32700000e+01    1.09680047e+02
62 harmonic    4.32700000e+01    1.09680047e+02
63 harmonic    4.32700000e+01    1.09680047e+02
64 harmonic    4.32700000e+01    1.09680047e+02
65 harmonic    3.58000000e+01    1.07730046e+02
66 harmonic    3.58000000e+01    1.07730046e+02
67 harmonic    3.58000000e+01    1.07730046e+02
68 harmonic    3.58000000e+01    1.07730046e+02
69 harmonic    3.58000000e+01    1.07730046e+02
70 harmonic    3.58000000e+01    1.07730046e+02
71 harmonic    3.58000000e+01    1.07730046e+02
72 harmonic    3.58000000e+01    1.07730046e+02
73 harmonic    3.58000000e+01    1.07730046e+02
74 harmonic    3.58000000e+01    1.07730046e+02
75 harmonic    6.30900000e+01    1.20060052e+02
76 harmonic    6.30900000e+01    1.20060052e+02
77 harmonic    1.00960000e+02    9.04300388e+01
78 harmonic    6.36700000e+01    1.20020052e+02
79 harmonic    4.49000000e+01    1.19880051e+02
80 harmonic    6.36700000e+01    1.20020052e+02
81 harmonic    6.36700000e+01    1.20020052e+02
82 harmonic    6.36700000e+01    1.20020052e+02
83 harmonic    6.07400000e+01    1.20830052e+02
84 harmonic    4.49000000e+01    1.19880051e+02
85 harmonic    6.36700000e+01    1.20020052e+02
86 harmonic    4.49000000e+01    1.19880051e+02
87 harmonic    6.03300000e+01    1.12420048e+02
88 harmonic    4.36100000e+01    1.10630048e+02
89 harmonic    4.36100000e+01    1.10630048e+02
90 harmonic    6.07400000e+01    1.20830052e+02
91 harmonic    6.36700000e+01    1.20020052e+02
92 harmonic    4.49000000e+01    1.19880051e+02
93 harmonic    4.49000000e+01    1.19880051e+02
94 harmonic    6.40000000e+01    1.16030050e+02
95 harmonic    4.49000000e+01    1.19880051e+02
96 harmonic    5.98700000e+01    1.12630048e+02
97 harmonic    4.32700000e+01    1.09680047e+02
98 harmonic    4.32700000e+01    1.09680047e+02
99 harmonic    4.32700000e+01    1.09680047e+02
100 harmonic    4.32700000e+01    1.09680047e+02
101 harmonic    5.98700000e+01    1.12630048e+02
102 harmonic    4.32700000e+01    1.09680047e+02
103 harmonic    4.32700000e+01    1.09680047e+02
104 harmonic    4.32700000e+01    1.09680047e+02
105 harmonic    4.32700000e+01    1.09680047e+02
106 harmonic    5.98700000e+01    1.12630048e+02
107 harmonic    4.32700000e+01    1.09680047e+02
108 harmonic    4.32700000e+01    1.09680047e+02
109 harmonic    4.32700000e+01    1.09680047e+02
110 harmonic    4.32700000e+01    1.09680047e+02
111 harmonic    5.98700000e+01    1.12630048e+02
112 harmonic    4.32700000e+01    1.09680047e+02
113 harmonic    4.32700000e+01    1.09680047e+02
114 harmonic    4.32700000e+01    1.09680047e+02
115 harmonic    4.32700000e+01    1.09680047e+02
116 harmonic    5.98700000e+01    1.12630048e+02
117 harmonic    4.32700000e+01    1.09680047e+02
118 harmonic    4.32700000e+01    1.09680047e+02
119 harmonic    4.32700000e+01    1.09680047e+02
120 harmonic    4.32700000e+01    1.09680047e+02
121 harmonic    5.98700000e+01    1.12630048e+02
122 harmonic    4.32700000e+01    1.09680047e+02
123 harmonic    4.32700000e+01    1.09680047e+02
124 harmonic    4.32700000e+01    1.09680047e+02
125 harmonic    4.32700000e+01    1.09680047e+02
126 harmonic    4.32700000e+01    1.09680047e+02
127 harmonic    4.32700000e+01    1.09680047e+02
128 harmonic    4.32700000e+01    1.09680047e+02
129 harmonic    4.32700000e+01    1.09680047e+02
130 harmonic    4.32700000e+01    1.09680047e+02
131 harmonic    3.58000000e+01    1.07730046e+02
132 harmonic    3.58000000e+01    1.07730046e+02
133 harmonic    3.58000000e+01    1.07730046e+02
134 harmonic    3.58000000e+01    1.07730046e+02
135 harmonic    3.58000000e+01    1.07730046e+02
136 harmonic    3.58000000e+01    1.07730046e+02
137 harmonic    3.58000000e+01    1.07730046e+02
138 harmonic    3.58000000e+01    1.07730046e+02
139 harmonic    3.58000000e+01    1.07730046e+02
140 harmonic    3.58000000e+01    1.07730046e+02

Dihedral Coeffs

1 charmm    3.62500000e+00         2       180         0
2 charmm    3.62500000e+00         2       180         0
3 charmm    1.10000000e+00         2       180         0
4 charmm    3.62500000e+00         2       180         0
5 charmm    3.62500000e+00         2       180         0
6 charmm    7.00000000e-01         2       180         0
7 charmm    7.00000000e-01         2       180         0
8 charmm    4.00000000e+00         2       180         0
9 charmm    4.00000000e+00         2       180         0
10 charmm    1.10000000e+00         2       180         0
11 charmm    1.10000000e+00         2       180         0
12 charmm    1.10000000e+00         2       180         0
13 charmm    3.62500000e+00         2       180         0
14 charmm    3.62500000e+00         2       180         0
15 charmm    1.10000000e+00         2       180         0
16 charmm    1.10000000e+00         2       180         0
17 charmm    3.62500000e+00         2       180         0
18 charmm    3.62500000e+00         2       180         0
19 charmm    7.00000000e-01         2       180         0
20 charmm    7.00000000e-01         2       180         0
21 charmm    3.62500000e+00         2       180         0
22 charmm    3.62500000e+00         2       180         0
23 charmm    3.62500000e+00         2       180         0
24 charmm    3.62500000e+00         2       180         0
25 charmm    2.40000000e-01         2       180         0
26 multi/harmonic    0.00000000e+00    0.00000000e+00    0.00000000e+00    0.00000000e+00    0.00000000e+00
27 multi/harmonic    0.00000000e+00    0.00000000e+00    0.00000000e+00    0.00000000e+00    0.00000000e+00
28 charmm    1.10000000e+00         2       180         0
29 charmm    3.62500000e+00         2       180         0
30 charmm    3.62500000e+00         2       180         0
31 charmm    3.62500000e+00         2       180         0
32 charmm    1.10000000e+00         2       180         0
33 multi/harmonic    1.55555545e-01   -4.66666635e-01    0.00000000e+00    6.22222180e-01    0.00000000e+00
34 multi/harmonic    1.55555545e-01   -4.66666635e-01    0.00000000e+00    6.22222180e-01    0.00000000e+00
35 multi/harmonic    1.55555545e-01   -4.66666635e-01    0.00000000e+00    6.22222180e-01    0.00000000e+00
36 charmm    3.62500000e+00         2       180         0
37 charmm    2.40000000e-01         2       180         0
38 multi/harmonic    0.00000000e+00    0.00000000e+00    0.00000000e+00    0.00000000e+00    0.00000000e+00
39 multi/harmonic    0.00000000e+00    0.00000000e+00    0.00000000e+00    0.00000000e+00    0.00000000e+00
40 charmm    3.62500000e+00         2       180         0
41 charmm    1.10000000e+00         2       180         0
42 charmm    3.62500000e+00         2       180         0
43 charmm    7.00000000e-01         2       180         0
44 charmm    7.00000000e-01         2       180         0
45 charmm    3.62500000e+00         2       180         0
46 charmm    3.62500000e+00         2       180         0
47 charmm    1.10000000e+00         2       180         0
48 charmm    4.00000000e+00         2       180         0
49 charmm    1.10000000e+00         2       180         0
50 charmm    8.95000000e-01         2       180         0
51 charmm    8.95000000e-01         2       180         0
52 charmm    3.62500000e+00         2       180         0
53 charmm    3.62500000e+00         2       180         0
54 charmm    3.62500000e+00         2       180         0
55 charmm    3.62500000e+00         2       180         0
56 charmm    1.10000000e+00         2       180         0
57 charmm    3.62500000e+00         2       180         0
58 charmm    3.62500000e+00         2       180         0
59 multi/harmonic    5.20000000e-01   -1.56000000e+00    0.00000000e+00    2.08000000e+00    0.00000000e+00
60 multi/harmonic    1.30000000e-01   -3.90000000e-01    0.00000000e+00    5.20000000e-01    0.00000000e+00
61 multi/harmonic    1.30000000e-01   -3.90000000e-01    0.00000000e+00    5.20000000e-01    0.00000000e+00
62 multi/harmonic    5.20000000e-01   -1.56000000e+00    0.00000000e+00    2.08000000e+00    0.00000000e+00
63 multi/harmonic    1.30000000e-01   -3.90000000e-01    0.00000000e+00    5.20000000e-01    0.00000000e+00
64 multi/harmonic    1.30000000e-01   -3.90000000e-01    0.00000000e+00    5.20000000e-01    0.00000000e+00
65 multi/harmonic    1.30000000e-01   -3.90000000e-01    0.00000000e+00    5.20000000e-01    0.00000000e+00
66 multi/harmonic    1.30000000e-01   -3.90000000e-01    0.00000000e+00    5.20000000e-01    0.00000000e+00
67 multi/harmonic    5.20000000e-01   -1.56000000e+00    0.00000000e+00    2.08000000e+00    0.00000000e+00
68 multi/harmonic    1.30000000e-01   -3.90000000e-01    0.00000000e+00    5.20000000e-01    0.00000000e+00
69 multi/harmonic    1.30000000e-01   -3.90000000e-01    0.00000000e+00    5.20000000e-01    0.00000000e+00
70 multi/harmonic    1.30000000e-01   -3.90000000e-01    0.00000000e+00    5.20000000e-01    0.00000000e+00
71 multi/harmonic    1.30000000e-01   -3.90000000e-01    0.00000000e+00    5.20000000e-01    0.00000000e+00
72 multi/harmonic    5.20000000e-01   -1.56000000e+00    0.00000000e+00    2.08000000e+00    0.00000000e+00
73 multi/harmonic    1.30000000e-01   -3.90000000e-01    0.00000000e+00    5.20000000e-01    0.00000000e+00
74 multi/harmonic    1.30000000e-01   -3.90000000e-01    0.00000000e+00    5.20000000e-01    0.00000000e+00
75 multi/harmonic    1.30000000e-01   -3.90000000e-01    0.00000000e+00    5.20000000e-01    0.00000000e+00
76 multi/harmonic    1.30000000e-01   -3.90000000e-01    0.00000000e+00    5.20000000e-01    0.00000000e+00
77 multi/harmonic    5.20000000e-01   -1.56000000e+00    0.00000000e+00    2.08000000e+00    0.00000000e+00
78 multi/harmonic    1.30000000e-01   -3.90000000e-01    0.00000000e+00    5.20000000e-01    0.00000000e+00
79 multi/harmonic    1.30000000e-01   -3.90000000e-01    0.00000000e+00    5.20000000e-01    0.00000000e+00
80 multi/harmonic    1.30000000e-01   -3.90000000e-01    0.00000000e+00    5.20000000e-01    0.00000000e+00
81 multi/harmonic    1.30000000e-01   -3.90000000e-01    0.00000000e+00    5.20000000e-01    0.00000000e+00
82 multi/harmonic    1.30000000e-01   -3.90000000e-01    0.00000000e+00    5.20000000e-01    0.00000000e+00
83 multi/harmonic    1.30000000e-01   -3.90000000e-01    0.00000000e+00    5.20000000e-01    0.00000000e+00
84 multi/harmonic    1.30000000e-01   -3.90000000e-01    0.00000000e+00    5.20000000e-01    0.00000000e+00
85 multi/harmonic    1.30000000e-01   -3.90000000e-01    0.00000000e+00    5.20000000e-01    0.00000000e+00
86 multi/harmonic    1.30000000e-01   -3.90000000e-01    0.00000000e+00    5.20000000e-01    0.00000000e+00
87 multi/harmonic    1.30000000e-01   -3.90000000e-01    0.00000000e+00    5.20000000e-01    0.00000000e+00
88 multi/harmonic    1.30000000e-01   -3.90000000e-01    0.00000000e+00    5.20000000e-01    0.00000000e+00
89 charmm    3.62500000e+00         2       180         0
90 charmm    3.62500000e+00         2       180         0
91 multi/harmonic    1.20000000e-01   -3.60000000e-01    0.00000000e+00    4.80000000e-01    0.00000000e+00
92 multi/harmonic    1.20000000e-01   -3.60000000e-01    0.00000000e+00    4.80000000e-01    0.00000000e+00
93 multi/harmonic    1.20000000e-01   -3.60000000e-01    0.00000000e+00    4.80000000e-01    0.00000000e+00
94 multi/harmonic    1.20000000e-01   -3.60000000e-01    0.00000000e+00    4.80000000e-01    0.00000000e+00
95 multi/harmonic    1.20000000e-01   -3.60000000e-01    0.00000000e+00    4.80000000e-01    0.00000000e+00
96 multi/harmonic    1.20000000e-01   -3.60000000e-01    0.00000000e+00    4.80000000e-01    0.00000000e+00
97 multi/harmonic    1.20000000e-01   -3.60000000e-01    0.00000000e+00    4.80000000e-01    0.00000000e+00
98 multi/harmonic    1.20000000e-01   -3.60000000e-01    0.00000000e+00    4.80000000e-01    0.00000000e+00
99 multi/harmonic    1.20000000e-01   -3.60000000e-01    0.00000000e+00    4.80000000e-01    0.00000000e+00
100 multi/harmonic    1.20000000e-01   -3.60000000e-01    0.00000000e+00    4.80000000e-01    0.00000000e+00
101 multi/harmonic    1.20000000e-01   -3.60000000e-01    0.00000000e+00    4.80000000e-01    0.00000000e+00
102 multi/harmonic    1.20000000e-01   -3.60000000e-01    0.00000000e+00    4.80000000e-01    0.00000000e+00
103 multi/harmonic    1.20000000e-01   -3.60000000e-01    0.00000000e+00    4.80000000e-01    0.00000000e+00
104 multi/harmonic    1.20000000e-01   -3.60000000e-01    0.00000000e+00    4.80000000e-01    0.00000000e+00
105 multi/harmonic    1.20000000e-01   -3.60000000e-01    0.00000000e+00    4.80000000e-01    0.00000000e+00
106 multi/harmonic    1.20000000e-01   -3.60000000e-01    0.00000000e+00    4.80000000e-01    0.00000000e+00
107 multi/harmonic    1.20000000e-01   -3.60000000e-01    0.00000000e+00    4.80000000e-01    0.00000000e+00
108 multi/harmonic    1.20000000e-01   -3.60000000e-01    0.00000000e+00    4.80000000e-01    0.00000000e+00
109 multi/harmonic    1.20000000e-01   -3.60000000e-01    0.00000000e+00    4.80000000e-01    0.00000000e+00
110 multi/harmonic    1.20000000e-01   -3.60000000e-01    0.00000000e+00    4.80000000e-01    0.00000000e+00
111 multi/harmonic    1.20000000e-01   -3.60000000e-01    0.00000000e+00    4.80000000e-01    0.00000000e+00
112 multi/harmonic    1.20000000e-01   -3.60000000e-01    0.00000000e+00    4.80000000e-01    0.00000000e+00
113 multi/harmonic    1.20000000e-01   -3.60000000e-01    0.00000000e+00    4.80000000e-01    0.00000000e+00
114 multi/harmonic    1.20000000e-01   -3.60000000e-01    0.00000000e+00    4.80000000e-01    0.00000000e+00
115 multi/harmonic    1.20000000e-01   -3.60000000e-01    0.00000000e+00    4.80000000e-01    0.00000000e+00
116 multi/harmonic    1.20000000e-01   -3.60000000e-01    0.00000000e+00    4.80000000e-01    0.00000000e+00
117 multi/harmonic    1.20000000e-01   -3.60000000e-01    0.00000000e+00    4.80000000e-01    0.00000000e+00
118 multi/harmonic    1.20000000e-01   -3.60000000e-01    0.00000000e+00    4.80000000e-01    0.00000000e+00
119 multi/harmonic    1.20000000e-01   -3.60000000e-01    0.00000000e+00    4.80000000e-01    0.00000000e+00
120 multi/harmonic    1.20000000e-01   -3.60000000e-01    0.00000000e+00    4.80000000e-01    0.00000000e+00
121 charmm    3.62500000e+00         2       180         0
122 charmm    3.62500000e+00         2       180         0
123 charmm    3.62500000e+00         2       180         0
124 charmm    4.00000000e+00         2       180         0
125 charmm    3.62500000e+00         2       180         0
126 charmm    3.62500000e+00         2       180         0
127 charmm    1.10000000e+00         2       180         0
128 charmm    1.10000000e+00         2       180         0
129 charmm    7.00000000e-01         2       180         0
130 charmm    3.62500000e+00         2       180         0
131 charmm    3.62500000e+00         2       180         0
132 charmm    4.00000000e-01         2       180         0
133 charmm    3.62500000e+00         2       180         0
134 charmm    3.62500000e+00         2       180         0
135 charmm    3.62500000e+00         2       180         0
136 charmm    2.40000000e-01         2       180         0
137 multi/harmonic    0.00000000e+00    0.00000000e+00    0.00000000e+00    0.00000000e+00    0.00000000e+00
138 multi/harmonic    0.00000000e+00    0.00000000e+00    0.00000000e+00    0.00000000e+00    0.00000000e+00
139 charmm    1.10000000e+00         2       180         0
140 charmm    3.62500000e+00         2       180         0
141 charmm    3.62500000e+00         2       180         0
142 charmm    3.62500000e+00         2       180         0
143 charmm    1.10000000e+00         2       180         0
144 multi/harmonic    1.55555545e-01   -4.66666635e-01    0.00000000e+00    6.22222180e-01    0.00000000e+00
145 multi/harmonic    1.55555545e-01   -4.66666635e-01    0.00000000e+00    6.22222180e-01    0.00000000e+00
146 multi/harmonic    1.55555545e-01   -4.66666635e-01    0.00000000e+00    6.22222180e-01    0.00000000e+00
147 charmm    3.62500000e+00         2       180         0
148 charmm    2.40000000e-01         2       180         0
149 multi/harmonic    0.00000000e+00    0.00000000e+00    0.00000000e+00    0.00000000e+00    0.00000000e+00
150 multi/harmonic    0.00000000e+00    0.00000000e+00    0.00000000e+00    0.00000000e+00    0.00000000e+00
151 charmm    1.10000000e+00         2       180         0
152 charmm    3.62500000e+00         2       180         0
153 charmm    7.00000000e-01         2       180         0
154 charmm    4.00000000e-01         2       180         0
155 charmm    3.62500000e+00         2       180         0
156 charmm    3.62500000e+00         2       180         0
157 charmm    1.10000000e+00         2       180         0
158 charmm    3.62500000e+00         2       180         0
159 charmm    3.62500000e+00         2       180         0
160 multi/harmonic    5.20000000e-01   -1.56000000e+00    0.00000000e+00    2.08000000e+00    0.00000000e+00
161 multi/harmonic    1.30000000e-01   -3.90000000e-01    0.00000000e+00    5.20000000e-01    0.00000000e+00
162 multi/harmonic    1.30000000e-01   -3.90000000e-01    0.00000000e+00    5.20000000e-01    0.00000000e+00
163 multi/harmonic    5.20000000e-01   -1.56000000e+00    0.00000000e+00    2.08000000e+00    0.00000000e+00
164 multi/harmonic    1.30000000e-01   -3.90000000e-01    0.00000000e+00    5.20000000e-01    0.00000000e+00
165 multi/harmonic    1.30000000e-01   -3.90000000e-01    0.00000000e+00    5.20000000e-01    0.00000000e+00
166 multi/harmonic    1.30000000e-01   -3.90000000e-01    0.00000000e+00    5.20000000e-01    0.00000000e+00
167 multi/harmonic    1.30000000e-01   -3.90000000e-01    0.00000000e+00    5.20000000e-01    0.00000000e+00
168 multi/harmonic    5.20000000e-01   -1.56000000e+00    0.00000000e+00    2.08000000e+00    0.00000000e+00
169 multi/harmonic    1.30000000e-01   -3.90000000e-01    0.00000000e+00    5.20000000e-01    0.00000000e+00
170 multi/harmonic    1.30000000e-01   -3.90000000e-01    0.00000000e+00    5.20000000e-01    0.00000000e+00
171 multi/harmonic    1.30000000e-01   -3.90000000e-01    0.00000000e+00    5.20000000e-01    0.00000000e+00
172 multi/harmonic    1.30000000e-01   -3.90000000e-01    0.00000000e+00    5.20000000e-01    0.00000000e+00
173 multi/harmonic    5.20000000e-01   -1.56000000e+00    0.00000000e+00    2.08000000e+00    0.00000000e+00
174 multi/harmonic    1.30000000e-01   -3.90000000e-01    0.00000000e+00    5.20000000e-01    0.00000000e+00
175 multi/harmonic    1.30000000e-01   -3.90000000e-01    0.00000000e+00    5.20000000e-01    0.00000000e+00
176 multi/harmonic    1.30000000e-01   -3.90000000e-01    0.00000000e+00    5.20000000e-01    0.00000000e+00
177 multi/harmonic    1.30000000e-01   -3.90000000e-01    0.00000000e+00    5.20000000e-01    0.00000000e+00
178 multi/harmonic    5.20000000e-01   -1.56000000e+00    0.00000000e+00    2.08000000e+00    0.00000000e+00
179 multi/harmonic    1.30000000e-01   -3.90000000e-01    0.00000000e+00    5.20000000e-01    0.00000000e+00
180 multi/harmonic    1.30000000e-01   -3.90000000e-01    0.00000000e+00    5.20000000e-01    0.00000000e+00
181 multi/harmonic    1.30000000e-01   -3.90000000e-01    0.00000000e+00    5.20000000e-01    0.00000000e+00
182 multi/harmonic    1.30000000e-01   -3.90000000e-01    0.00000000e+00    5.20000000e-01    0.00000000e+00
183 multi/harmonic    1.30000000e-01   -3.90000000e-01    0.00000000e+00    5.20000000e-01    0.00000000e+00
184 multi/harmonic    1.30000000e-01   -3.90000000e-01    0.00000000e+00    5.20000000e-01    0.00000000e+00
185 multi/harmonic    1.30000000e-01   -3.90000000e-01    0.00000000e+00    5.20000000e-01    0.00000000e+00
186 multi/harmonic    1.30000000e-01   -3.90000000e-01    0.00000000e+00    5.20000000e-01    0.00000000e+00
187 multi/harmonic    1.30000000e-01   -3.90000000e-01    0.00000000e+00    5.20000000e-01    0.00000000e+00
188 multi/harmonic    1.30000000e-01   -3.90000000e-01    0.00000000e+00    5.20000000e-01    0.00000000e+00
189 multi/harmonic    1.30000000e-01   -3.90000000e-01    0.00000000e+00    5.20000000e-01    0.00000000e+00
190 charmm    3.62500000e+00         2       180         0
191 multi/harmonic    1.20000000e-01   -3.60000000e-01    0.00000000e+00    4.80000000e-01    0.00000000e+00
192 multi/harmonic    1.20000000e-01   -3.60000000e-01    0.00000000e+00    4.80000000e-01    0.00000000e+00
193 multi/harmonic    1.20000000e-01   -3.60000000e-01    0.00000000e+00    4.80000000e-01    0.00000000e+00
194 multi/harmonic    1.20000000e-01   -3.60000000e-01    0.00000000e+00    4.80000000e-01    0.00000000e+00
195 multi/harmonic    1.20000000e-01   -3.60000000e-01    0.00000000e+00    4.80000000e-01    0.00000000e+00
196 multi/harmonic    1.20000000e-01   -3.60000000e-01    0.00000000e+00    4.80000000e-01    0.00000000e+00
197 multi/harmonic    1.20000000e-01   -3.60000000e-01    0.00000000e+00    4.80000000e-01    0.00000000e+00
198 multi/harmonic    1.20000000e-01   -3.60000000e-01    0.00000000e+00    4.80000000e-01    0.00000000e+00
199 multi/harmonic    1.20000000e-01   -3.60000000e-01    0.00000000e+00    4.80000000e-01    0.00000000e+00
200 multi/harmonic    1.20000000e-01   -3.60000000e-01    0.00000000e+00    4.80000000e-01    0.00000000e+00
201 multi/harmonic    1.20000000e-01   -3.60000000e-01    0.00000000e+00    4.80000000e-01    0.00000000e+00
202 multi/harmonic    1.20000000e-01   -3.60000000e-01    0.00000000e+00    4.80000000e-01    0.00000000e+00
203 multi/harmonic    1.20000000e-01   -3.60000000e-01    0.00000000e+00    4.80000000e-01    0.00000000e+00
204 multi/harmonic    1.20000000e-01   -3.60000000e-01    0.00000000e+00    4.80000000e-01    0.00000000e+00
205 multi/harmonic    1.20000000e-01   -3.60000000e-01    0.00000000e+00    4.80000000e-01    0.00000000e+00
206 multi/harmonic    1.20000000e-01   -3.60000000e-01    0.00000000e+00    4.80000000e-01    0.00000000e+00
207 multi/harmonic    1.20000000e-01   -3.60000000e-01    0.00000000e+00    4.80000000e-01    0.00000000e+00
208 multi/harmonic    1.20000000e-01   -3.60000000e-01    0.00000000e+00    4.80000000e-01    0.00000000e+00
209 multi/harmonic    1.20000000e-01   -3.60000000e-01    0.00000000e+00    4.80000000e-01    0.00000000e+00
210 multi/harmonic    1.20000000e-01   -3.60000000e-01    0.00000000e+00    4.80000000e-01    0.00000000e+00
211 multi/harmonic    1.20000000e-01   -3.60000000e-01    0.00000000e+00    4.80000000e-01    0.00000000e+00
212 multi/harmonic    1.20000000e-01   -3.60000000e-01    0.00000000e+00    4.80000000e-01    0.00000000e+00
213 multi/harmonic    1.20000000e-01   -3.60000000e-01    0.00000000e+00    4.80000000e-01    0.00000000e+00
214 multi/harmonic    1.20000000e-01   -3.60000000e-01    0.00000000e+00    4.80000000e-01    0.00000000e+00