LAMMPS data file via write_data, version 23 Jun 2022, timestep = 500000

864 atoms
7 atom types
944 bonds
59 bond types
1696 angles
106 angle types
2816 dihedrals
176 dihedral types

-0.07118151506582988 12.207581515065536 xlo xhi
0.18250060764187473 21.00554448975775 ylo yhi
0.10599305852169434 34.44237907127732 zlo zhi
-2.907795788757296 -3.7472337944360894 -2.1187964265961967 xy xz yz

Masses

1 32.06
2 12.01
3 12.01
4 1.008
5 12.01
6 12.01
7 1.008

Pair Coeffs # lj/cut/coul/long

1 0.2824 3.53241
2 0.0988 3.31521
3 0.0988 3.31521
4 0.0161 2.62548
5 0.0988 3.31521
6 0.1078 3.39771
7 0.0208 2.60018

Bond Coeffs

1 harmonic    2.31660000e+02    1.75380000e+00
2 harmonic    2.13480000e+02    1.78470000e+00
3 harmonic    2.13480000e+02    1.78470000e+00
4 harmonic    2.26530000e+02    1.76220000e+00
5 harmonic    2.96500000e+02    1.45280000e+00
6 harmonic    3.86240000e+02    1.37300000e+00
7 harmonic    3.54250000e+02    1.39860000e+00
8 harmonic    3.54250000e+02    1.39860000e+00
9 harmonic    3.54250000e+02    1.39860000e+00
10 harmonic    2.13480000e+02    1.78470000e+00
11 harmonic    3.60690000e+02    1.08600000e+00
12 harmonic    3.54250000e+02    1.39860000e+00
13 harmonic    3.54250000e+02    1.39860000e+00
14 harmonic    3.54250000e+02    1.39860000e+00
15 harmonic    2.96500000e+02    1.45280000e+00
16 harmonic    3.60690000e+02    1.08600000e+00
17 harmonic    3.64120000e+02    1.08380000e+00
18 harmonic    3.86240000e+02    1.37300000e+00
19 harmonic    2.53870000e+02    1.50180000e+00
20 harmonic    2.28890000e+02    1.53540000e+00
21 harmonic    2.28890000e+02    1.53540000e+00
22 harmonic    2.28890000e+02    1.53540000e+00
23 harmonic    3.45250000e+02    1.09620000e+00
24 harmonic    3.45250000e+02    1.09620000e+00
25 harmonic    3.45250000e+02    1.09620000e+00
26 harmonic    3.45250000e+02    1.09620000e+00
27 harmonic    3.45250000e+02    1.09620000e+00
28 harmonic    3.45250000e+02    1.09620000e+00
29 harmonic    3.45250000e+02    1.09620000e+00
30 harmonic    3.45250000e+02    1.09620000e+00
31 harmonic    3.45250000e+02    1.09620000e+00
32 harmonic    2.26530000e+02    1.76220000e+00
33 harmonic    2.13480000e+02    1.78470000e+00
34 harmonic    2.26530000e+02    1.76220000e+00
35 harmonic    2.88790000e+02    1.46100000e+00
36 harmonic    3.54250000e+02    1.39860000e+00
37 harmonic    3.54250000e+02    1.39860000e+00
38 harmonic    3.54250000e+02    1.39860000e+00
39 harmonic    3.60690000e+02    1.08600000e+00
40 harmonic    3.54250000e+02    1.39860000e+00
41 harmonic    3.54250000e+02    1.39860000e+00
42 harmonic    3.54250000e+02    1.39860000e+00
43 harmonic    2.96500000e+02    1.45280000e+00
44 harmonic    3.60690000e+02    1.08600000e+00
45 harmonic    3.64120000e+02    1.08380000e+00
46 harmonic    3.86240000e+02    1.37300000e+00
47 harmonic    2.53870000e+02    1.50180000e+00
48 harmonic    2.28890000e+02    1.53540000e+00
49 harmonic    2.28890000e+02    1.53540000e+00
50 harmonic    2.28890000e+02    1.53540000e+00
51 harmonic    3.45250000e+02    1.09620000e+00
52 harmonic    3.45250000e+02    1.09620000e+00
53 harmonic    3.45250000e+02    1.09620000e+00
54 harmonic    3.45250000e+02    1.09620000e+00
55 harmonic    3.45250000e+02    1.09620000e+00
56 harmonic    3.45250000e+02    1.09620000e+00
57 harmonic    3.45250000e+02    1.09620000e+00
58 harmonic    3.45250000e+02    1.09620000e+00
59 harmonic    3.45250000e+02    1.09620000e+00

Angle Coeffs

1 harmonic    6.30100000e+01    1.21480052e+02
2 harmonic    6.66200000e+01    1.11550048e+02
3 harmonic    6.30900000e+01    1.20060052e+02
4 harmonic    6.30900000e+01    1.20060052e+02
5 harmonic    6.30900000e+01    1.20060052e+02
6 harmonic    6.30900000e+01    1.20060052e+02
7 harmonic    6.58400000e+01    1.13350049e+02
8 harmonic    6.25500000e+01    1.20140051e+02
9 harmonic    1.01980000e+02    8.90400380e+01
10 harmonic    6.21900000e+01    1.20910052e+02
11 harmonic    6.21900000e+01    1.20910052e+02
12 harmonic    6.58400000e+01    1.13350049e+02
13 harmonic    6.16400000e+01    1.24290053e+02
14 harmonic    6.40000000e+01    1.16030050e+02
15 harmonic    6.36700000e+01    1.20020052e+02
16 harmonic    6.30900000e+01    1.20060052e+02
17 harmonic    6.36700000e+01    1.20020052e+02
18 harmonic    4.49000000e+01    1.19880051e+02
19 harmonic    6.36700000e+01    1.20020052e+02
20 harmonic    4.49000000e+01    1.19880051e+02
21 harmonic    6.36700000e+01    1.20020052e+02
22 harmonic    1.00960000e+02    9.04300388e+01
23 harmonic    6.30900000e+01    1.20060052e+02
24 harmonic    6.36700000e+01    1.20020052e+02
25 harmonic    4.49000000e+01    1.19880051e+02
26 harmonic    1.00960000e+02    9.04300388e+01
27 harmonic    6.36700000e+01    1.20020052e+02
28 harmonic    6.21900000e+01    1.20910052e+02
29 harmonic    4.49000000e+01    1.19880051e+02
30 harmonic    4.29800000e+01    1.22900053e+02
31 harmonic    6.40000000e+01    1.16030050e+02
32 harmonic    6.21900000e+01    1.20910052e+02
33 harmonic    6.00600000e+01    1.26680054e+02
34 harmonic    4.53000000e+01    1.21400052e+02
35 harmonic    6.05100000e+01    1.12670048e+02
36 harmonic    6.05100000e+01    1.12670048e+02
37 harmonic    6.05100000e+01    1.12670048e+02
38 harmonic    4.32700000e+01    1.09680047e+02
39 harmonic    4.32700000e+01    1.09680047e+02
40 harmonic    4.32700000e+01    1.09680047e+02
41 harmonic    4.32700000e+01    1.09680047e+02
42 harmonic    4.32700000e+01    1.09680047e+02
43 harmonic    4.32700000e+01    1.09680047e+02
44 harmonic    4.32700000e+01    1.09680047e+02
45 harmonic    4.32700000e+01    1.09680047e+02
46 harmonic    4.32700000e+01    1.09680047e+02
47 harmonic    5.98700000e+01    1.12630048e+02
48 harmonic    5.98700000e+01    1.12630048e+02
49 harmonic    3.58000000e+01    1.07730046e+02
50 harmonic    3.58000000e+01    1.07730046e+02
51 harmonic    3.58000000e+01    1.07730046e+02
52 harmonic    5.98700000e+01    1.12630048e+02
53 harmonic    3.58000000e+01    1.07730046e+02
54 harmonic    3.58000000e+01    1.07730046e+02
55 harmonic    3.58000000e+01    1.07730046e+02
56 harmonic    3.58000000e+01    1.07730046e+02
57 harmonic    3.58000000e+01    1.07730046e+02
58 harmonic    3.58000000e+01    1.07730046e+02
59 harmonic    6.31300000e+01    1.19820052e+02
60 harmonic    6.30900000e+01    1.20060052e+02
61 harmonic    6.30900000e+01    1.20060052e+02
62 harmonic    6.58400000e+01    1.13350049e+02
63 harmonic    6.25500000e+01    1.20140051e+02
64 harmonic    6.20200000e+01    1.20830052e+02
65 harmonic    6.20200000e+01    1.20830052e+02
66 harmonic    6.36700000e+01    1.20020052e+02
67 harmonic    6.36700000e+01    1.20020052e+02
68 harmonic    4.49000000e+01    1.19880051e+02
69 harmonic    6.36700000e+01    1.20020052e+02
70 harmonic    4.49000000e+01    1.19880051e+02
71 harmonic    6.36700000e+01    1.20020052e+02
72 harmonic    6.36700000e+01    1.20020052e+02
73 harmonic    4.49000000e+01    1.19880051e+02
74 harmonic    1.00960000e+02    9.04300388e+01
75 harmonic    6.36700000e+01    1.20020052e+02
76 harmonic    6.21900000e+01    1.20910052e+02
77 harmonic    4.49000000e+01    1.19880051e+02
78 harmonic    4.29800000e+01    1.22900053e+02
79 harmonic    6.40000000e+01    1.16030050e+02
80 harmonic    6.21900000e+01    1.20910052e+02
81 harmonic    6.00600000e+01    1.26680054e+02
82 harmonic    4.53000000e+01    1.21400052e+02
83 harmonic    6.05100000e+01    1.12670048e+02
84 harmonic    6.05100000e+01    1.12670048e+02
85 harmonic    6.05100000e+01    1.12670048e+02
86 harmonic    4.32700000e+01    1.09680047e+02
87 harmonic    4.32700000e+01    1.09680047e+02
88 harmonic    4.32700000e+01    1.09680047e+02
89 harmonic    4.32700000e+01    1.09680047e+02
90 harmonic    4.32700000e+01    1.09680047e+02
91 harmonic    4.32700000e+01    1.09680047e+02
92 harmonic    4.32700000e+01    1.09680047e+02
93 harmonic    4.32700000e+01    1.09680047e+02
94 harmonic    4.32700000e+01    1.09680047e+02
95 harmonic    5.98700000e+01    1.12630048e+02
96 harmonic    5.98700000e+01    1.12630048e+02
97 harmonic    3.58000000e+01    1.07730046e+02
98 harmonic    3.58000000e+01    1.07730046e+02
99 harmonic    3.58000000e+01    1.07730046e+02
100 harmonic    5.98700000e+01    1.12630048e+02
101 harmonic    3.58000000e+01    1.07730046e+02
102 harmonic    3.58000000e+01    1.07730046e+02
103 harmonic    3.58000000e+01    1.07730046e+02
104 harmonic    3.58000000e+01    1.07730046e+02
105 harmonic    3.58000000e+01    1.07730046e+02
106 harmonic    3.58000000e+01    1.07730046e+02

Dihedral Coeffs

1 charmm    7.00000000e-01         2       180         0
2 charmm    7.00000000e-01         2       180         0
3 charmm    1.10000000e+00         2       180         0
4 charmm    4.00000000e+00         2       180         0
5 charmm    4.00000000e+00         2       180         0
6 charmm    3.62500000e+00         2       180         0
7 charmm    3.62500000e+00         2       180         0
8 charmm    1.10000000e+00         2       180         0
9 charmm    3.62500000e+00         2       180         0
10 charmm    3.62500000e+00         2       180         0
11 charmm    3.62500000e+00         2       180         0
12 charmm    3.62500000e+00         2       180         0
13 charmm    3.62500000e+00         2       180         0
14 charmm    3.62500000e+00         2       180         0
15 charmm    4.00000000e+00         2       180         0
16 charmm    4.00000000e+00         2       180         0
17 multi/harmonic    0.00000000e+00    0.00000000e+00    0.00000000e+00    0.00000000e+00    0.00000000e+00
18 multi/harmonic    0.00000000e+00    0.00000000e+00    0.00000000e+00    0.00000000e+00    0.00000000e+00
19 multi/harmonic    0.00000000e+00    0.00000000e+00    0.00000000e+00    0.00000000e+00    0.00000000e+00
20 charmm    8.95000000e-01         2       180         0
21 charmm    8.95000000e-01         2       180         0
22 charmm    3.62500000e+00         2       180         0
23 charmm    3.62500000e+00         2       180         0
24 charmm    3.62500000e+00         2       180         0
25 charmm    3.62500000e+00         2       180         0
26 charmm    1.10000000e+00         2       180         0
27 charmm    7.00000000e-01         2       180         0
28 charmm    7.00000000e-01         2       180         0
29 charmm    4.00000000e+00         2       180         0
30 charmm    4.00000000e+00         2       180         0
31 charmm    3.62500000e+00         2       180         0
32 charmm    3.62500000e+00         2       180         0
33 charmm    4.00000000e-01         2       180         0
34 charmm    1.10000000e+00         2       180         0
35 charmm    1.10000000e+00         2       180         0
36 charmm    3.62500000e+00         2       180         0
37 charmm    3.62500000e+00         2       180         0
38 charmm    7.00000000e-01         2       180         0
39 charmm    3.62500000e+00         2       180         0
40 charmm    3.62500000e+00         2       180         0
41 charmm    3.62500000e+00         2       180         0
42 charmm    1.10000000e+00         2       180         0
43 charmm    1.10000000e+00         2       180         0
44 charmm    1.10000000e+00         2       180         0
45 charmm    3.62500000e+00         2       180         0
46 charmm    4.00000000e-01         2       180         0
47 charmm    4.00000000e-01         2       180         0
48 charmm    3.62500000e+00         2       180         0
49 charmm    3.62500000e+00         2       180         0
50 charmm    1.10000000e+00         2       180         0
51 charmm    3.62500000e+00         2       180         0
52 charmm    3.62500000e+00         2       180         0
53 charmm    1.10000000e+00         2       180         0
54 charmm    1.10000000e+00         2       180         0
55 charmm    3.62500000e+00         2       180         0
56 charmm    3.62500000e+00         2       180         0
57 charmm    7.00000000e-01         2       180         0
58 charmm    7.00000000e-01         2       180         0
59 charmm    1.10000000e+00         2       180         0
60 charmm    4.00000000e-01         2       180         0
61 charmm    4.00000000e+00         2       180         0
62 charmm    1.10000000e+00         2       180         0
63 charmm    7.00000000e-01         2       180         0
64 charmm    3.62500000e+00         2       180         0
65 charmm    7.00000000e-01         2       180         0
66 charmm    7.00000000e-01         2       180         0
67 charmm    3.62500000e+00         2       180         0
68 charmm    1.57000000e-01         3       180         0
69 charmm    1.57000000e-01         3       180         0
70 charmm    1.57000000e-01         3       180         0
71 charmm    4.00000000e+00         2       180         0
72 multi/harmonic    1.55555545e-01   -4.66666635e-01    0.00000000e+00    6.22222180e-01    0.00000000e+00
73 multi/harmonic    1.55555545e-01   -4.66666635e-01    0.00000000e+00    6.22222180e-01    0.00000000e+00
74 multi/harmonic    1.55555545e-01   -4.66666635e-01    0.00000000e+00    6.22222180e-01    0.00000000e+00
75 multi/harmonic    1.55555545e-01   -4.66666635e-01    0.00000000e+00    6.22222180e-01    0.00000000e+00
76 multi/harmonic    1.55555545e-01   -4.66666635e-01    0.00000000e+00    6.22222180e-01    0.00000000e+00
77 multi/harmonic    1.55555545e-01   -4.66666635e-01    0.00000000e+00    6.22222180e-01    0.00000000e+00
78 multi/harmonic    1.55555545e-01   -4.66666635e-01    0.00000000e+00    6.22222180e-01    0.00000000e+00
79 multi/harmonic    1.55555545e-01   -4.66666635e-01    0.00000000e+00    6.22222180e-01    0.00000000e+00
80 multi/harmonic    1.55555545e-01   -4.66666635e-01    0.00000000e+00    6.22222180e-01    0.00000000e+00
81 charmm    1.10000000e+00         2       180         0
82 multi/harmonic    1.30000000e-01   -3.90000000e-01    0.00000000e+00    5.20000000e-01    0.00000000e+00
83 multi/harmonic    1.30000000e-01   -3.90000000e-01    0.00000000e+00    5.20000000e-01    0.00000000e+00
84 multi/harmonic    1.30000000e-01   -3.90000000e-01    0.00000000e+00    5.20000000e-01    0.00000000e+00
85 multi/harmonic    1.30000000e-01   -3.90000000e-01    0.00000000e+00    5.20000000e-01    0.00000000e+00
86 multi/harmonic    1.30000000e-01   -3.90000000e-01    0.00000000e+00    5.20000000e-01    0.00000000e+00
87 multi/harmonic    1.30000000e-01   -3.90000000e-01    0.00000000e+00    5.20000000e-01    0.00000000e+00
88 multi/harmonic    1.30000000e-01   -3.90000000e-01    0.00000000e+00    5.20000000e-01    0.00000000e+00
89 multi/harmonic    1.30000000e-01   -3.90000000e-01    0.00000000e+00    5.20000000e-01    0.00000000e+00
90 multi/harmonic    1.30000000e-01   -3.90000000e-01    0.00000000e+00    5.20000000e-01    0.00000000e+00
91 multi/harmonic    1.30000000e-01   -3.90000000e-01    0.00000000e+00    5.20000000e-01    0.00000000e+00
92 multi/harmonic    1.30000000e-01   -3.90000000e-01    0.00000000e+00    5.20000000e-01    0.00000000e+00
93 multi/harmonic    1.30000000e-01   -3.90000000e-01    0.00000000e+00    5.20000000e-01    0.00000000e+00
94 multi/harmonic    1.30000000e-01   -3.90000000e-01    0.00000000e+00    5.20000000e-01    0.00000000e+00
95 multi/harmonic    1.30000000e-01   -3.90000000e-01    0.00000000e+00    5.20000000e-01    0.00000000e+00
96 multi/harmonic    1.30000000e-01   -3.90000000e-01    0.00000000e+00    5.20000000e-01    0.00000000e+00
97 multi/harmonic    1.30000000e-01   -3.90000000e-01    0.00000000e+00    5.20000000e-01    0.00000000e+00
98 multi/harmonic    1.30000000e-01   -3.90000000e-01    0.00000000e+00    5.20000000e-01    0.00000000e+00
99 multi/harmonic    1.30000000e-01   -3.90000000e-01    0.00000000e+00    5.20000000e-01    0.00000000e+00
100 charmm    7.00000000e-01         2       180         0
101 charmm    7.00000000e-01         2       180         0
102 charmm    3.62500000e+00         2       180         0
103 charmm    3.62500000e+00         2       180         0
104 charmm    3.62500000e+00         2       180         0
105 charmm    3.62500000e+00         2       180         0
106 charmm    4.00000000e+00         2       180         0
107 charmm    4.00000000e+00         2       180         0
108 multi/harmonic    0.00000000e+00    0.00000000e+00    0.00000000e+00    0.00000000e+00    0.00000000e+00
109 multi/harmonic    0.00000000e+00    0.00000000e+00    0.00000000e+00    0.00000000e+00    0.00000000e+00
110 multi/harmonic    0.00000000e+00    0.00000000e+00    0.00000000e+00    0.00000000e+00    0.00000000e+00
111 charmm    3.62500000e+00         2       180         0
112 charmm    3.62500000e+00         2       180         0
113 charmm    3.62500000e+00         2       180         0
114 charmm    1.10000000e+00         2       180         0
115 charmm    3.62500000e+00         2       180         0
116 charmm    3.62500000e+00         2       180         0
117 charmm    1.10000000e+00         2       180         0
118 charmm    3.62500000e+00         2       180         0
119 charmm    3.62500000e+00         2       180         0
120 charmm    1.10000000e+00         2       180         0
121 charmm    1.10000000e+00         2       180         0
122 charmm    3.62500000e+00         2       180         0
123 charmm    3.62500000e+00         2       180         0
124 charmm    3.62500000e+00         2       180         0
125 charmm    1.10000000e+00         2       180         0
126 charmm    1.10000000e+00         2       180         0
127 charmm    3.62500000e+00         2       180         0
128 charmm    4.00000000e-01         2       180         0
129 charmm    3.62500000e+00         2       180         0
130 charmm    3.62500000e+00         2       180         0
131 charmm    1.10000000e+00         2       180         0
132 charmm    3.62500000e+00         2       180         0
133 charmm    1.10000000e+00         2       180         0
134 charmm    1.10000000e+00         2       180         0
135 charmm    3.62500000e+00         2       180         0
136 charmm    7.00000000e-01         2       180         0
137 charmm    7.00000000e-01         2       180         0
138 charmm    1.10000000e+00         2       180         0
139 charmm    4.00000000e-01         2       180         0
140 charmm    4.00000000e+00         2       180         0
141 charmm    1.10000000e+00         2       180         0
142 charmm    7.00000000e-01         2       180         0
143 charmm    7.00000000e-01         2       180         0
144 charmm    3.62500000e+00         2       180         0
145 charmm    1.57000000e-01         3       180         0
146 charmm    1.57000000e-01         3       180         0
147 charmm    1.57000000e-01         3       180         0
148 charmm    4.00000000e+00         2       180         0
149 multi/harmonic    1.55555545e-01   -4.66666635e-01    0.00000000e+00    6.22222180e-01    0.00000000e+00
150 multi/harmonic    1.55555545e-01   -4.66666635e-01    0.00000000e+00    6.22222180e-01    0.00000000e+00
151 multi/harmonic    1.55555545e-01   -4.66666635e-01    0.00000000e+00    6.22222180e-01    0.00000000e+00
152 multi/harmonic    1.55555545e-01   -4.66666635e-01    0.00000000e+00    6.22222180e-01    0.00000000e+00
153 multi/harmonic    1.55555545e-01   -4.66666635e-01    0.00000000e+00    6.22222180e-01    0.00000000e+00
154 multi/harmonic    1.55555545e-01   -4.66666635e-01    0.00000000e+00    6.22222180e-01    0.00000000e+00
155 multi/harmonic    1.55555545e-01   -4.66666635e-01    0.00000000e+00    6.22222180e-01    0.00000000e+00
156 multi/harmonic    1.55555545e-01   -4.66666635e-01    0.00000000e+00    6.22222180e-01    0.00000000e+00
157 multi/harmonic    1.55555545e-01   -4.66666635e-01    0.00000000e+00    6.22222180e-01    0.00000000e+00
158 charmm    1.10000000e+00         2       180         0
159 multi/harmonic    1.30000000e-01   -3.90000000e-01    0.00000000e+00    5.20000000e-01    0.00000000e+00
160 multi/harmonic    1.30000000e-01   -3.90000000e-01    0.00000000e+00    5.20000000e-01    0.00000000e+00
161 multi/harmonic    1.30000000e-01   -3.90000000e-01    0.00000000e+00    5.20000000e-01    0.00000000e+00
162 multi/harmonic    1.30000000e-01   -3.90000000e-01    0.00000000e+00    5.20000000e-01    0.00000000e+00
163 multi/harmonic    1.30000000e-01   -3.90000000e-01    0.00000000e+00    5.20000000e-01    0.00000000e+00
164 multi/harmonic    1.30000000e-01   -3.90000000e-01    0.00000000e+00    5.20000000e-01    0.00000000e+00
165 multi/harmonic    1.30000000e-01   -3.90000000e-01    0.00000000e+00    5.20000000e-01    0.00000000e+00
166 multi/harmonic    1.30000000e-01   -3.90000000e-01    0.00000000e+00    5.20000000e-01    0.00000000e+00
167 multi/harmonic    1.30000000e-01   -3.90000000e-01    0.00000000e+00    5.20000000e-01    0.00000000e+00
168 multi/harmonic    1.30000000e-01   -3.90000000e-01    0.00000000e+00    5.20000000e-01    0.00000000e+00
169 multi/harmonic    1.30000000e-01   -3.90000000e-01    0.00000000e+00    5.20000000e-01    0.00000000e+00
170 multi/harmonic    1.30000000e-01   -3.90000000e-01    0.00000000e+00    5.20000000e-01    0.00000000e+00
171 multi/harmonic    1.30000000e-01   -3.90000000e-01    0.00000000e+00    5.20000000e-01    0.00000000e+00
172 multi/harmonic    1.30000000e-01   -3.90000000e-01    0.00000000e+00    5.20000000e-01    0.00000000e+00
173 multi/harmonic    1.30000000e-01   -3.90000000e-01    0.00000000e+00    5.20000000e-01    0.00000000e+00
174 multi/harmonic    1.30000000e-01   -3.90000000e-01    0.00000000e+00    5.20000000e-01    0.00000000e+00
175 multi/harmonic    1.30000000e-01   -3.90000000e-01    0.00000000e+00    5.20000000e-01    0.00000000e+00
176 multi/harmonic    1.30000000e-01   -3.90000000e-01    0.00000000e+00    5.20000000e-01    0.00000000e+00

Atoms # full

1 1 1 0.06453703700000001 0.27939551618348635 0.3232067602829546 9.559115139935388 0 1 0
3 1 2 -0.075562963 0.19020781625330896 9.851549400578149 9.252586172239075 0 0 0
4 1 3 -0.029762963 0.9187581203754829 8.911780501914201 10.078779855376244 0 0 0
5 1 3 -0.055062963 2.1501645272327 8.602564216110473 9.478490183035758 0 0 0
6 1 3 -0.066962963 3.10241206498764 7.830899743880598 10.166547741994089 0 0 0
7 1 4 0.143037037 -1.913072762814493 7.666770859163351 9.772150121882873 1 0 0
8 1 3 -0.064062963 2.7410761285188707 7.310712106556396 11.409772402952337 0 0 0
535 10 7 0.040737037 9.330194492345901 0.879291990618457 1.6792245441652869 0 1 0
28 1 1 0.06453703700000001 2.3443787330584938 9.32386006246781 7.851841871186 0 0 0
29 1 1 0.002537037 11.033415432506219 3.4595636499117814 5.109854296510783 -1 1 0
538 10 7 0.040737037 10.192196350155008 8.791702638527365 0.9253850725858835 0 0 0
31 1 3 -0.029762963 1.5885454049365795 0.6450651684718297 7.217259834624662 0 1 0
32 1 3 -0.055062963 0.4378780977505479 1.0374033502685975 7.9075277131329695 0 1 0
33 1 3 -0.066962963 -0.4877178356231892 1.8967462308422747 7.314797648679337 0 1 0
34 1 4 0.143037037 4.699981055283191 1.9782094208930687 7.839561069049816 -1 1 0
35 1 3 -0.064062963 -0.2044774838441354 2.3767245014174265 6.039571380175444 0 1 0
36 1 3 -0.074762963 0.992213747259779 2.089441032021355 5.405748929659516 0 1 0
37 1 3 -0.058962963 1.9159105537007257 1.1951411080351488 5.967697621732585 0 1 0
38 1 4 0.143037037 2.788180757473951 0.896326674823185 5.415212734530005 0 1 0
39 1 2 -0.134162963 1.1432497512729427 2.7652068758240067 4.14677895072865 0 1 0
40 1 4 0.156037037 2.020266280868386 2.623132282873562 3.5046296190138846 0 1 0
41 1 5 -0.061562963 -0.03428022787835488 3.4836331321604077 3.7884039680104813 0 1 0
42 1 6 0.009237037 -0.2192597189475054 4.313685851171259 2.5142917060622594 0 1 0
43 1 6 -0.08806296299999999 1.1224665905154942 4.609768749186659 1.8153937030570966 0 1 0
44 1 7 0.040737037 1.7006705230267494 3.746868239152922 1.4808371271306031 0 1 0
45 1 7 0.040737037 0.9347982605850811 5.299581575968732 0.9823791205984713 0 1 0
46 1 7 0.040737037 1.8340164028310895 5.159492796748975 2.4317066236144473 0 1 0
47 1 6 -0.08806296299999999 -1.0289711015200456 5.6158010019240985 2.8736559171594123 0 1 0
48 1 7 0.040737037 -0.4067223102453855 6.125978846056507 3.619171353597104 0 1 0
49 1 7 0.040737037 -1.1415786397224852 6.286002048016071 2.025724266272966 0 1 0
50 1 7 0.040737037 4.2360806394133 5.368319039688503 3.155559862203674 -1 1 0
51 1 6 -0.08806296299999999 4.978489426497989 3.375621363219698 1.5665768254319339 -1 1 0
52 1 7 0.040737037 3.949316786223474 3.356387131326858 2.0964366657848044 -1 1 0
53 1 7 0.040737037 4.774388392975039 3.836902973318473 0.6019106328111231 -1 1 0
54 1 7 0.040737037 5.261296139744229 2.3328837350643448 1.391553934667095 -1 1 0
55 2 1 0.06453703700000001 -0.0805569494037656 5.9094282894542 8.637198675039224 1 0 0
57 2 2 -0.075562963 -1.3689043960971414 4.863627907499588 9.16461759922475 1 0 0
58 2 3 -0.029762963 -1.4441261838182817 3.869832676558328 10.19276705287151 1 0 0
59 2 3 -0.055062963 3.733193555690568 3.182526309886795 10.140556330622589 0 0 0
60 2 3 -0.066962963 3.449571212922411 2.1540241172385635 11.029634002709686 0 0 0
61 2 4 0.143037037 2.5511068905855403 1.5872889533011312 10.85929387991057 0 0 0
64 2 3 -0.058962963 -0.527001522396832 3.6057994812996923 11.223207229360728 1 0 0
440 9 3 -0.064062963 9.066419751594506 7.418022772494765 11.504199879603092 0 0 0
82 2 1 0.06453703700000001 2.640123720928772 3.7096900771145256 8.806677318934463 0 0 0
83 2 1 0.002537037 -1.567614975587441 9.080870186597329 4.19818836938708 1 0 0
84 2 5 -0.075562963 3.882588391130439 4.903629655643578 8.404456554894303 0 0 0
85 2 3 -0.029762963 3.922160123784997 5.939506888478734 7.398588971867944 0 0 0
86 2 3 -0.055062963 -1.1749907823994519 6.515932319619586 7.362871553296698 1 0 0
87 2 3 -0.066962963 -0.8563114914533613 7.591459154972885 6.4856302382745845 1 0 0
88 2 4 0.143037037 0.11277884265697978 8.074820211339564 6.545620044370619 1 0 0
89 2 3 -0.064062963 10.461805093503328 7.907983162869136 5.475588461169632 0 0 0
90 2 3 -0.074762963 3.2971178518343995 7.157384148840177 5.465856139335481 0 0 0
91 2 3 -0.058962963 2.9636185577499505 6.1882701157648565 6.414740004550468 0 0 0
92 2 4 0.143037037 2.082666512721071 5.6092806420327435 6.342746499047958 0 0 0
93 2 2 -0.134162963 2.4932405838364775 7.5681085833591215 4.331370445639688 0 0 0
94 2 4 0.156037037 1.4949813955980882 7.169995870870944 4.14291614679116 0 0 0
95 2 5 -0.061562963 3.086977738157941 8.573400829315668 3.6035031657156487 0 0 0
96 2 6 0.009237037 2.5765689486949723 9.297273630798438 2.32722442968745 0 0 0
97 2 6 -0.08806296299999999 1.6277437268136552 8.364236477977444 1.5642860472203077 0 0 0
98 2 7 0.040737037 0.7234576154350146 8.077017408309294 2.1566319729935985 0 0 0
99 2 7 0.040737037 1.223753243493051 8.897303118034175 0.6759758362650781 0 0 0
100 2 7 0.040737037 2.096041843423551 7.424503565601048 1.2558035342330338 0 0 0
65 2 4 0.143037037 0.37263103294200794 4.170630352670021 11.362090967127886 1 0 0
102 2 7 0.040737037 3.9746033206286593 0.9482386745162102 3.124912037411972 0 1 0
103 2 7 0.040737037 2.9159154873621302 0.8698555724870449 1.7608258849142036 0 1 0
497 10 4 0.143037037 6.808196825003826 4.093517318672403 11.319765623450515 1 0 0
105 2 6 -0.08806296299999999 3.7584297917521274 9.677601064847025 1.315560734360886 0 0 0
106 2 7 0.040737037 4.231078308091993 8.769536931521525 0.9090472149341124 0 0 0
537 10 6 -0.08806296299999999 9.701336184615199 9.679631921216913 1.2424648371069293 0 0 0
107 2 7 0.040737037 3.427993310240673 10.255911120077695 0.44798054768067425 0 0 0
433 9 1 0.06453703700000001 6.326815919778415 0.12099309752077167 9.484289832922721 0 1 0
534 10 7 0.040737037 10.305469140485435 0.9639124784125627 3.193934769564787 0 1 0
436 9 3 -0.029762963 7.195814663558549 8.935835980129786 10.152234725801886 0 0 0
437 9 3 -0.055062963 8.436208753087541 8.693734169085989 9.558588064912097 0 0 0
438 9 3 -0.066962963 9.373604629622973 7.881806630580956 10.19393112839218 0 0 0
439 9 4 0.143037037 4.1128467176664945 7.666803196234076 9.749453990335128 1 0 0
101 2 6 -0.08806296299999999 3.2814906581270917 0.24859374136547918 2.580040482746918 0 1 0
539 10 7 0.040737037 9.28102327479138 10.272054106277729 0.3994724675944752 0 0 0
460 9 1 0.06453703700000001 8.559037307219956 9.294518847653347 7.889050801113688 0 0 0
461 9 1 0.002537037 4.896112266022316 3.3214473463951717 5.076956169226138 0 1 0
533 10 6 -0.08806296299999999 9.600531404730349 0.3589235620107088 2.620710899180721 0 1 0
463 9 3 -0.029762963 7.796668521768985 0.7664344765560079 7.3371709433769 0 1 0
464 9 3 -0.055062963 6.596743979288035 1.0157041713830632 7.949604284430646 0 1 0
465 9 3 -0.066962963 5.643246258961831 1.8449690683549027 7.341398513023431 0 1 0
466 9 4 0.143037037 10.887224801674847 2.182539497904014 7.820926999026606 -1 1 0
467 9 3 -0.064062963 5.969485762706889 2.3671569934293593 6.075060449134344 0 1 0
468 9 3 -0.074762963 7.178985251267629 2.158241546394516 5.47866570115631 0 1 0
469 9 3 -0.058962963 8.143106475050686 1.3377823135117533 6.103143433821492 0 1 0
470 9 4 0.143037037 9.070875131093866 1.0939469465927043 5.643149725725237 0 1 0
471 9 2 -0.134162963 7.294207821718617 2.7083389067683896 4.173052353519499 0 1 0
472 9 4 0.156037037 8.153669298244825 2.55655850908953 3.5333558952651276 0 1 0
473 9 5 -0.061562963 6.15572054194039 3.4047932252548057 3.781731493099206 0 1 0
474 9 6 0.009237037 5.934515780088416 4.173411784451437 2.482430643045003 0 1 0
475 9 6 -0.08806296299999999 7.264818188005951 4.378609555310065 1.7255082407465234 0 1 0
476 9 7 0.040737037 7.678829529230632 3.405894516461928 1.5499990707542126 0 1 0
477 9 7 0.040737037 7.0847895296183285 4.933442872260232 0.8045949286607575 0 1 0
478 9 7 0.040737037 7.953364350234309 4.936799091086548 2.364966560763567 0 1 0
479 9 6 -0.08806296299999999 5.279072700551331 5.547231567487555 2.758152639441097 0 1 0